TITLE = "Ellipse FEM Mesh"
VARIABLES = "X, Y, P_adjoint"
ZONE N=120, E=198, DATAPACKING=POINT, ZONETYPE=FETRIANGLE
2.000000000000e+00 0.000000000000e+00 1.060387336551e-02
1.975376681190e+00 2.346516975603e-01 1.238341329062e-02
1.902113032590e+00 4.635254915624e-01 3.498540934425e-02
1.782013048377e+00 6.809857496093e-01 8.711706455801e-02
1.618033988750e+00 8.816778784387e-01 1.640587322747e-01
1.414213562373e+00 1.060660171780e+00 2.543084443821e-01
1.175570504585e+00 1.213525491562e+00 3.517773689325e-01
9.079809994791e-01 1.336509786283e+00 4.031291434859e-01
6.180339887499e-01 1.426584774443e+00 4.058275532827e-01
3.128689300805e-01 1.481532510893e+00 3.286693099049e-01
1.224646799147e-16 1.500000000000e+00 2.132775851527e-01
-3.128689300805e-01 1.481532510893e+00 1.035074669459e-01
-6.180339887499e-01 1.426584774443e+00 2.479510513294e-02
-9.079809994791e-01 1.336509786283e+00 -1.267701409130e-02
-1.175570504585e+00 1.213525491562e+00 5.374893590411e-02
-1.414213562373e+00 1.060660171780e+00 1.190070794956e-01
-1.618033988750e+00 8.816778784387e-01 1.847819579649e-01
-1.782013048377e+00 6.809857496093e-01 2.329982275623e-01
-1.902113032590e+00 4.635254915624e-01 2.750257948811e-01
-1.975376681190e+00 2.346516975603e-01 3.039937934147e-01
-2.000000000000e+00 1.836970198721e-16 3.138731209577e-01
-1.975376681190e+00 -2.346516975603e-01 3.024837425291e-01
-1.902113032590e+00 -4.635254915624e-01 2.852661877855e-01
-1.782013048377e+00 -6.809857496093e-01 2.547204202597e-01
-1.618033988750e+00 -8.816778784387e-01 1.976484638188e-01
-1.414213562373e+00 -1.060660171780e+00 1.157558623000e-01
-1.175570504585e+00 -1.213525491562e+00 5.270587278306e-02
-9.079809994791e-01 -1.336509786283e+00 -8.560631541246e-03
-6.180339887499e-01 -1.426584774443e+00 1.173552043511e-02
-3.128689300805e-01 -1.481532510893e+00 1.010115091945e-01
-3.673940397442e-16 -1.500000000000e+00 2.127831046503e-01
3.128689300805e-01 -1.481532510893e+00 3.294808206634e-01
6.180339887499e-01 -1.426584774443e+00 4.041499935513e-01
9.079809994791e-01 -1.336509786283e+00 4.012256554297e-01
1.175570504585e+00 -1.213525491562e+00 3.621035554068e-01
1.414213562373e+00 -1.060660171780e+00 2.587571887232e-01
1.618033988750e+00 -8.816778784387e-01 1.604476313913e-01
1.782013048377e+00 -6.809857496093e-01 9.067365552613e-02
1.902113032590e+00 -4.635254915624e-01 4.466191738882e-02
1.975376681190e+00 -2.346516975603e-01 1.659400554547e-02
1.128939877468e+00 1.152338094215e+00 3.467072066377e-01
-7.519680210189e-01 -1.229382852927e-01 5.067407267726e-01
2.086543520939e-01 -1.439326086612e+00 2.910322547411e-01
1.652445850903e+00 -6.476430382480e-01 9.755270732330e-02
3.031581173651e-01 1.340714832297e+00 3.241527053038e-01
5.787571307706e-02 8.987240778102e-01 2.485244941340e-01
4.865981161990e-01 1.308252574351e+00 3.829762954915e-01
-3.235506792991e-01 -5.915634346754e-01 3.110518548811e-01
9.150803607897e-01 8.588001006024e-02 -5.061389441998e-02
2.460429038888e-01 -1.237717364473e+00 3.013055044359e-01
7.736656043779e-01 -6.975842003857e-01 1.932890648571e-01
-1.671303535183e-01 -1.198113167310e+00 1.656057059239e-01
8.562933359797e-01 1.592004062035e-01 -2.544420095789e-02
1.375620157035e-01 5.162775167370e-01 2.349645344284e-01
-1.640067405117e+00 8.054850665939e-01 2.020009956173e-01
1.061619191486e+00 1.243782628063e+00 3.733118029340e-01
-1.156339623235e+00 -9.064840050719e-01 1.338378491142e-01
-5.711848010215e-01 -7.454374298049e-01 2.451290698101e-01
8.906810413541e-01 -8.649614208485e-01 2.728574510416e-01
3.884026738946e-01 -2.751400227665e-01 1.449465371200e-01
5.483350804554e-01 -1.099511692947e+00 3.536361208637e-01
-2.191080219696e-01 1.095478540770e-01 3.770731351455e-01
-7.441458958414e-01 -4.518386319615e-01 4.001266012977e-01
-5.877397226874e-01 4.380342221863e-01 4.007040531502e-01
-1.094610855186e+00 1.050929287002e+00 8.497599837443e-02
1.330184732898e+00 7.256953242940e-01 1.570258758946e-01
1.549908048914e+00 -7.753434367194e-01 1.462771765993e-01
5.625289093260e-01 -1.035834473857e+00 3.395222115506e-01
5.404220052687e-01 -1.138275219112e+00 3.611369674449e-01
1.504036195329e+00 9.034772193361e-01 1.924586819454e-01
-7.222426073489e-02 1.480696146321e+00 1.870897764487e-01
1.572574770030e+00 -1.618177182609e-01 -2.694358929915e-02
-8.872909981692e-01 -3.523457406051e-01 4.493482751094e-01
-5.805825096969e-02 6.199122427786e-01 2.688485204082e-01
1.710072930014e+00 2.120697676493e-01 -5.011240991507e-03
-6.399262969905e-01 -1.156530142371e+00 4.469879302844e-02
2.521324408526e-01 -2.068082852613e-01 1.829218537673e-01
-3.326355190331e-01 -7.121323310479e-01 2.676187143497e-01
1.175210052723e+00 8.181067098933e-01 2.181812001016e-01
-2.238183899383e-01 -1.264843855519e+00 1.373186610103e-01
4.500766659632e-01 -1.159031602263e+00 3.504452481961e-01
1.267040443966e-01 -7.442976499245e-01 2.487709228114e-01
-9.189289974315e-01 3.367511675256e-01 4.528898497352e-01
3.091238758718e-01 7.443209840874e-01 2.466813994231e-01
1.389440643156e+00 -6.048293779553e-01 1.049639060497e-01
-1.493592916975e+00 -4.782507110275e-01 3.225547171454e-01
1.565905791513e+00 3.992982000933e-01 2.458216505797e-02
1.305984656447e+00 -1.654646689877e-01 -4.955345607192e-02
5.711986531475e-01 7.573100007228e-01 2.404310245955e-01
-3.068328360328e-01 -8.118677525762e-01 2.322692584724e-01
1.225235380440e+00 9.998349742587e-01 2.843033235178e-01
-1.255060815826e+00 1.048782352848e+00 9.670606759214e-02
-6.496976307502e-01 -3.492679714657e-01 4.406594351792e-01
1.276659787816e+00 -9.780043645496e-01 2.688990469371e-01
-1.629175728269e+00 -7.083669524514e-01 2.438549654765e-01
-1.426326121586e+00 -1.009318599111e+00 1.294318951074e-01
9.740011535670e-01 3.731354153676e-01 6.647320612895e-03
-7.970110385809e-01 6.673311913303e-01 2.826169647537e-01
3.176921457514e-01 -1.751010941995e-01 1.538038403752e-01
-1.005714431946e+00 8.961232856827e-01 1.438558697627e-01
9.364569129105e-01 1.173873813315e+00 3.892415165255e-01
2.947752112497e-01 1.062974532351e+00 3.052688992174e-01
3.859067807702e-01 -1.099716379282e+00 3.252471601977e-01
6.502960779946e-01 8.287914163467e-02 2.108387472567e-02
1.134600190269e+00 -8.007270315565e-01 2.127361175180e-01
-1.142669598462e+00 -2.830380771503e-01 4.665830648258e-01
1.529178329637e+00 -7.490466034407e-01 1.412631987605e-01
-3.236682531959e-01 1.049966924389e+00 1.420116296932e-01
5.002573347680e-01 -4.630245887868e-01 1.489734023313e-01
1.989285445614e+00 5.778638469886e-02 1.085302342217e-02
-1.577175427183e+00 5.727409254973e-03 3.980882057908e-01
1.262045294598e+00 -8.186623429419e-02 -6.027263966751e-02
-1.468829016099e+00 -6.395037695618e-01 2.609994103842e-01
-3.261724678786e-01 -1.214686969388e-03 4.184306574029e-01
1.789146079433e+00 4.845795776912e-01 4.233121121445e-02
-3.631242180951e-01 6.951865646617e-01 2.821253461012e-01
1.520065617139e+00 1.338424229626e-01 -3.553986225521e-02
5.287807376988e-01 2.532133349811e-01 7.428815910497e-02
7.405030824603e-01 -1.112336405911e+00 3.738781123767e-01
4.056250853592e-01 -9.549398245959e-01 3.031470995148e-01
106 113 57
22 111 21
113 96 57
96 113 25
28 76 57
119 34 35
26 96 25
96 26 57
111 20 21
20 111 19
111 18 19
100 14 65
92 100 65
92 16 17
24 86 23
86 22 23
22 86 111
86 113 106
111 86 106
82 48 78
73 106 57
63 73 57
73 42 106
54 118 84
46 54 84
53 49 97
49 53 104
118 53 97
53 118 104
80 30 31
52 76 80
52 50 82
52 80 31
50 52 31
58 63 57
76 58 57
48 58 78
110 75 1
75 3 115
94 85 105
59 119 35
94 59 35
59 94 105
59 105 51
27 28 57
26 27 57
83 111 106
42 83 106
55 92 17
55 100 92
55 83 100
18 55 17
55 18 111
83 55 111
15 16 92
14 15 65
15 92 65
86 95 113
95 86 24
95 24 25
113 95 25
109 60 82
109 120 51
120 109 82
49 109 51
109 49 104
60 109 104
60 77 82
77 48 82
73 93 42
93 73 63
58 93 63
93 58 48
12 71 11
102 46 84
71 102 11
102 71 46
74 46 116
74 54 46
74 116 62
54 74 62
2 110 1
75 2 3
2 75 110
3 4 115
76 29 80
29 30 80
29 76 28
52 90 76
58 90 78
90 58 76
90 82 78
90 52 82
87 75 115
4 87 115
120 68 51
68 59 51
59 68 119
36 94 35
38 44 37
44 38 39
40 72 39
72 44 39
44 72 85
72 40 1
75 72 1
100 108 14
108 13 14
13 108 12
46 108 116
108 71 12
71 108 46
83 98 100
108 98 116
98 108 100
118 99 104
99 60 104
99 77 60
54 99 118
99 54 62
77 99 62
93 114 42
114 93 48
114 77 62
77 114 48
101 8 9
47 101 9
10 47 9
70 5 6
43 50 31
32 43 31
43 32 50
33 34 119
33 81 32
32 81 50
107 44 85
107 85 94
72 88 85
88 49 51
105 88 51
85 88 105
98 64 116
64 98 83
116 64 62
64 114 62
64 83 42
114 64 42
56 8 101
56 7 8
89 79 101
89 102 84
79 89 97
89 47 102
47 89 101
89 118 97
118 89 84
66 5 70
87 66 97
66 79 97
5 66 4
66 87 4
47 45 102
45 47 10
102 45 11
45 10 11
103 68 120
81 103 50
50 103 82
103 120 82
69 33 119
69 81 33
36 67 94
67 107 94
67 36 37
44 67 37
107 67 44
49 112 97
88 112 49
112 88 72
41 56 101
41 7 56
68 61 119
61 69 119
69 61 81
103 61 68
61 103 81
117 72 75
117 112 72
87 117 75
117 87 97
112 117 97
79 91 101
91 41 101
91 70 6
7 91 6
41 91 7
91 66 70
66 91 79
